  ==> Input File <==

--------------------------------------------------------------------------
#! ADC/6-31G** on H2O

memory 250 mb

molecule he {
    He
    symmetry c1
}

set {
    reference rhf
    basis 6-311G
    guess core
    print 5
    SCF_TYPE PK
}

energy('scf')
--------------------------------------------------------------------------

    Molecular point group: c1
    Geometry (in Angstrom), charge = 0, multiplicity = 1:

       Center              X                  Y                   Z
    ------------   -----------------  -----------------  -----------------
          HE          0.000000000000     0.000000000000     0.000000000000

  Charge       = 0
  Multiplicity = 1

    Orbital Energies (a.u.)
    -----------------------

    Doubly Occupied:

       1A     -0.916871

  @RHF Final Energy:    -2.85989542456875

   => Energetics <=

    Nuclear Repulsion Energy =              0.0000000000000000
    One-Electron Energy =                  -3.8860487730070830
    Two-Electron Energy =                   1.0261533484383325
    DFT Exchange-Correlation Energy =       0.0000000000000000
    Empirical Dispersion Energy =           0.0000000000000000
    PCM Polarization Energy =               0.0000000000000000
    EFP Energy =                            0.0000000000000000
    Total Energy =                         -2.8598954245687507

  Lowdin Charges [a.u.]:

   Center  Symbol    Alpha    Beta     Spin     Total
       1    HE     1.00000  1.00000  0.00000 -0.00000

  Total alpha =  1.00000, Total beta =  1.00000, Total charge = -0.00000
