  ==> Input File <==

--------------------------------------------------------------------------
#! ADC/6-31G** on H2O

memory 250 mb

molecule h2o {
O       0.0000 	 0.000    0.222
H       0.0000 	 1.431 	 -0.887
H       0.0000 	-1.431   -0.887
units au
symmetry c1
}

set {
    reference rhf
    basis 6-31G
    guess core
    print 0
    SCF_TYPE PK
}

energy('scf')
--------------------------------------------------------------------------

    Molecular point group: c1

    Geometry (in Bohr), charge = 0, multiplicity = 1:

       Center              X                  Y                   Z
    ------------   -----------------  -----------------  -----------------
           O          0.000000000000     0.000000000000     0.124113594459
           H          0.000000000000     1.431000000000    -0.984886405541
           H          0.000000000000    -1.431000000000    -0.984886405541

  Charge       = 0
  Multiplicity = 1
  @RHF Final Energy:   -75.98395911972925

   => Energetics <=

    Nuclear Repulsion Energy =              9.1871053887341212
    One-Electron Energy =                -122.9655914682508495
    Two-Electron Energy =                  37.7945269597874471
    DFT Exchange-Correlation Energy =       0.0000000000000000
    Empirical Dispersion Energy =           0.0000000000000000
    PCM Polarization Energy =               0.0000000000000000
    EFP Energy =                            0.0000000000000000
    Total Energy =                        -75.9839591197292776
