  ==> Input File <==

--------------------------------------------------------------------------
#! ADC/6-31G** on H2O

memory 250 mb

molecule Ne {
    Ne
    symmetry c1
}

set {
    reference rhf
    basis 6-31G
    guess core
    print 5
    SCF_TYPE PK
}

energy('scf')
--------------------------------------------------------------------------

    Molecular point group: c1
    Geometry (in Angstrom), charge = 0, multiplicity = 1:

       Center              X                  Y                   Z
    ------------   -----------------  -----------------  -----------------
          NE          0.000000000000     0.000000000000     0.000000000000

  Charge       = 0
  Multiplicity = 1

    Orbital Energies (a.u.)
    -----------------------

    Doubly Occupied:

       1A    -32.759323     2A     -1.910819     3A     -0.830771
       4A     -0.830771     5A     -0.830771

  @RHF Final Energy:  -128.47387687052631

   => Energetics <=

    Nuclear Repulsion Energy =              0.0000000000000000
    One-Electron Energy =                -182.6228096819501445
    Two-Electron Energy =                  54.1489328114238404
    DFT Exchange-Correlation Energy =       0.0000000000000000
    Empirical Dispersion Energy =           0.0000000000000000
    PCM Polarization Energy =               0.0000000000000000
    EFP Energy =                            0.0000000000000000
    Total Energy =                       -128.4738768705263112

  Lowdin Charges [a.u.]:

   Center  Symbol    Alpha    Beta     Spin     Total
       1    NE     5.00000  5.00000  0.00000  0.00000

  Total alpha =  5.00000, Total beta =  5.00000, Total charge =  0.00000
